    1C
    1UUSER                                                              
    1UDATE              28.march.2017                                   
    1UTIME              08:05:37                                        
    1UHOST                                                              
    1UPGM               CalculiX                                        
    1UVERSION           Version 2.11                             
    1UCOMPILETIME       So 31. Jul 13:26:31 CEST 2016                    
    1UDIR                                                               
    1UDBN                                                               
    1UMAT    1CARBONSTEEL(C>_EQ_0.3%)                                   
    1UMAT    2CARBONSTEEL(C<_EQ_0.3%)                                   
    1UMAT    3ALUMINUM                                                  
    1UMAT    4TITANIUM                                                  
    2C                          6794                                     1
 -1         1-5.00000E-02-4.00000E-02 0.00000E+00
 -1         2 4.00000E-02-4.00000E-02 0.00000E+00
 -1         3 4.00000E-02-4.00000E-02 1.20000E-02
 -1         4-5.00000E-02-4.00000E-02 1.20000E-02
 -1         5-2.50000E-02 0.00000E+00 0.00000E+00
 -1         6 2.50000E-02 0.00000E+00 0.00000E+00
 -1         7-5.00000E-02 4.00000E-02 0.00000E+00
 -1         8-6.00000E-02 3.00000E-02 0.00000E+00
 -1         9 4.00000E-02 4.00000E-02 0.00000E+00
 -1        10 6.00000E-02 2.00000E-02 0.00000E+00
 -1        11 6.00000E-02-2.00000E-02 0.00000E+00
 -1        12-6.00000E-02-3.00000E-02 0.00000E+00
 -1        13-6.00000E-02-3.00000E-02 1.20000E-02
 -1        14-2.50000E-02 0.00000E+00 1.20000E-02
 -1        15 2.50000E-02 0.00000E+00 1.20000E-02
 -1        16-5.00000E-02 4.00000E-02 1.20000E-02
 -1        17-6.00000E-02 3.00000E-02 1.20000E-02
 -1        18 6.00000E-02-2.00000E-02 1.20000E-02
 -1        19 6.00000E-02 2.00000E-02 1.20000E-02
 -1        20 4.00000E-02 4.00000E-02 1.20000E-02
 -1        31-4.75000E-02-4.00000E-02 0.00000E+00
 -1        32-4.50000E-02-4.00000E-02 0.00000E+00
 -1        33-4.25000E-02-4.00000E-02 0.00000E+00
 -1        34-4.00000E-02-4.00000E-02 0.00000E+00
 -1        35-3.75000E-02-4.00000E-02 0.00000E+00
 -1        36-3.50000E-02-4.00000E-02 0.00000E+00
 -1        37-3.25000E-02-4.00000E-02 0.00000E+00
 -1        38-3.00000E-02-4.00000E-02 0.00000E+00
 -1        39-2.75000E-02-4.00000E-02 0.00000E+00
 -1        40-2.50000E-02-4.00000E-02 0.00000E+00
 -1        41-2.25000E-02-4.00000E-02 0.00000E+00
 -1        42-2.00000E-02-4.00000E-02 0.00000E+00
 -1        43-1.75000E-02-4.00000E-02 0.00000E+00
 -1        44-1.50000E-02-4.00000E-02 0.00000E+00
 -1        45-1.25000E-02-4.00000E-02 0.00000E+00
 -1        46-1.00000E-02-4.00000E-02 0.00000E+00
 -1        47-7.50000E-03-4.00000E-02 0.00000E+00
 -1        48-5.00000E-03-4.00000E-02 0.00000E+00
 -1        49-2.50000E-03-4.00000E-02 0.00000E+00
 -1        50 0.00000E+00-4.00000E-02 0.00000E+00
 -1        51 2.50000E-03-4.00000E-02 0.00000E+00
 -1        52 5.00000E-03-4.00000E-02 0.00000E+00
 -1        53 7.50000E-03-4.00000E-02 0.00000E+00
 -1        54 1.00000E-02-4.00000E-02 0.00000E+00
 -1        55 1.25000E-02-4.00000E-02 0.00000E+00
 -1        56 1.50000E-02-4.00000E-02 0.00000E+00
 -1        57 1.75000E-02-4.00000E-02 0.00000E+00
 -1        58 2.00000E-02-4.00000E-02 0.00000E+00
 -1        59 2.25000E-02-4.00000E-02 0.00000E+00
 -1        60 2.50000E-02-4.00000E-02 0.00000E+00
 -1        61 2.75000E-02-4.00000E-02 0.00000E+00
 -1        62 3.00000E-02-4.00000E-02 0.00000E+00
 -1        63 3.25000E-02-4.00000E-02 0.00000E+00
 -1        64 3.50000E-02-4.00000E-02 0.00000E+00
 -1        65 3.75000E-02-4.00000E-02 0.00000E+00
 -1        66 4.00000E-02-4.00000E-02 1.00000E-02
 -1        67 4.00000E-02-4.00000E-02 8.00000E-03
 -1        68 4.00000E-02-4.00000E-02 6.00000E-03
 -1        69 4.00000E-02-4.00000E-02 4.00000E-03
 -1        70 4.00000E-02-4.00000E-02 2.00000E-03
 -1        71-4.75000E-02-4.00000E-02 1.20000E-02
 -1        72-4.50000E-02-4.00000E-02 1.20000E-02
 -1        73-4.25000E-02-4.00000E-02 1.20000E-02
 -1        74-4.00000E-02-4.00000E-02 1.20000E-02
 -1        75-3.75000E-02-4.00000E-02 1.20000E-02
 -1        76-3.50000E-02-4.00000E-02 1.20000E-02
 -1        77-3.25000E-02-4.00000E-02 1.20000E-02
 -1        78-3.00000E-02-4.00000E-02 1.20000E-02
 -1        79-2.75000E-02-4.00000E-02 1.20000E-02
 -1        80-2.50000E-02-4.00000E-02 1.20000E-02
 -1        81-2.25000E-02-4.00000E-02 1.20000E-02
 -1        82-2.00000E-02-4.00000E-02 1.20000E-02
 -1        83-1.75000E-02-4.00000E-02 1.20000E-02
 -1        84-1.50000E-02-4.00000E-02 1.20000E-02
 -1        85-1.25000E-02-4.00000E-02 1.20000E-02
 -1        86-1.00000E-02-4.00000E-02 1.20000E-02
 -1        87-7.50000E-03-4.00000E-02 1.20000E-02
 -1        88-5.00000E-03-4.00000E-02 1.20000E-02
 -1        89-2.50000E-03-4.00000E-02 1.20000E-02
 -1        90 0.00000E+00-4.00000E-02 1.20000E-02
 -1        91 2.50000E-03-4.00000E-02 1.20000E-02
 -1        92 5.00000E-03-4.00000E-02 1.20000E-02
 -1        93 7.50000E-03-4.00000E-02 1.20000E-02
 -1        94 1.00000E-02-4.00000E-02 1.20000E-02
 -1        95 1.25000E-02-4.00000E-02 1.20000E-02
 -1        96 1.50000E-02-4.00000E-02 1.20000E-02
 -1        97 1.75000E-02-4.00000E-02 1.20000E-02
 -1        98 2.00000E-02-4.00000E-02 1.20000E-02
 -1        99 2.25000E-02-4.00000E-02 1.20000E-02
 -1       100 2.50000E-02-4.00000E-02 1.20000E-02
 -1       101 2.75000E-02-4.00000E-02 1.20000E-02
 -1       102 3.00000E-02-4.00000E-02 1.20000E-02
 -1       103 3.25000E-02-4.00000E-02 1.20000E-02
 -1       104 3.50000E-02-4.00000E-02 1.20000E-02
 -1       105 3.75000E-02-4.00000E-02 1.20000E-02
 -1       106-5.00000E-02-4.00000E-02 1.00000E-02
 -1       107-5.00000E-02-4.00000E-02 8.00000E-03
 -1       108-5.00000E-02-4.00000E-02 6.00000E-03
 -1       109-5.00000E-02-4.00000E-02 4.00000E-03
 -1       110-5.00000E-02-4.00000E-02 2.00000E-03
 -1       111-2.48800E-02 2.45000E-03 0.00000E+00
 -1       112-2.45200E-02 4.87700E-03 0.00000E+00
 -1       113-2.39240E-02 7.25700E-03 0.00000E+00
 -1       114-2.30970E-02 9.56700E-03 0.00000E+00
 -1       115-2.20480E-02 1.17850E-02 0.00000E+00
 -1       116-2.07870E-02 1.38890E-02 0.00000E+00
 -1       117-1.93250E-02 1.58600E-02 0.00000E+00
 -1       118-1.76780E-02 1.76780E-02 0.00000E+00
 -1       119-1.58600E-02 1.93250E-02 0.00000E+00
 -1       120-1.38890E-02 2.07870E-02 0.00000E+00
 -1       121-1.17850E-02 2.20480E-02 0.00000E+00
 -1       122-9.56700E-03 2.30970E-02 0.00000E+00
 -1       123-7.25700E-03 2.39240E-02 0.00000E+00
 -1       124-4.87700E-03 2.45200E-02 0.00000E+00
 -1       125-2.45000E-03 2.48800E-02 0.00000E+00
 -1       126-0.00000E+00 2.50000E-02 0.00000E+00
 -1       127 2.45000E-03 2.48800E-02 0.00000E+00
 -1       128 4.87700E-03 2.45200E-02 0.00000E+00
 -1       129 7.25700E-03 2.39240E-02 0.00000E+00
 -1       130 9.56700E-03 2.30970E-02 0.00000E+00
 -1       131 1.17850E-02 2.20480E-02 0.00000E+00
 -1       132 1.38890E-02 2.07870E-02 0.00000E+00
 -1       133 1.58600E-02 1.93250E-02 0.00000E+00
 -1       134 1.76780E-02 1.76780E-02 0.00000E+00
 -1       135 1.93250E-02 1.58600E-02 0.00000E+00
 -1       136 2.07870E-02 1.38890E-02 0.00000E+00
 -1       137 2.20480E-02 1.17850E-02 0.00000E+00
 -1       138 2.30970E-02 9.56700E-03 0.00000E+00
 -1       139 2.39240E-02 7.25700E-03 0.00000E+00
 -1       140 2.45200E-02 4.87700E-03 0.00000E+00
 -1       141 2.48800E-02 2.45000E-03 0.00000E+00
 -1       142 2.48800E-02-2.45000E-03 0.00000E+00
 -1       143 2.45200E-02-4.87700E-03 0.00000E+00
 -1       144 2.39240E-02-7.25700E-03 0.00000E+00
 -1       145 2.30970E-02-9.56700E-03 0.00000E+00
 -1       146 2.20480E-02-1.17850E-02 0.00000E+00
 -1       147 2.07870E-02-1.38890E-02 0.00000E+00
 -1       148 1.93250E-02-1.58600E-02 0.00000E+00
 -1       149 1.76780E-02-1.76780E-02 0.00000E+00
 -1       150 1.58600E-02-1.93250E-02 0.00000E+00
 -1       151 1.38890E-02-2.07870E-02 0.00000E+00
 -1       152 1.17850E-02-2.20480E-02 0.00000E+00
 -1       153 9.56700E-03-2.30970E-02 0.00000E+00
 -1       154 7.25700E-03-2.39240E-02 0.00000E+00
 -1       155 4.87700E-03-2.45200E-02 0.00000E+00
 -1       156 2.45000E-03-2.48800E-02 0.00000E+00
 -1       157 0.00000E+00-2.50000E-02 0.00000E+00
 -1       158-2.45000E-03-2.48800E-02 0.00000E+00
 -1       159-4.87700E-03-2.45200E-02 0.00000E+00
 -1       160-7.25700E-03-2.39240E-02 0.00000E+00
 -1       161-9.56700E-03-2.30970E-02 0.00000E+00
 -1       162-1.17850E-02-2.20480E-02 0.00000E+00
 -1       163-1.38890E-02-2.07870E-02 0.00000E+00
 -1       164-1.58600E-02-1.93250E-02 0.00000E+00
 -1       165-1.76780E-02-1.76780E-02 0.00000E+00
 -1       166-1.93250E-02-1.58600E-02 0.00000E+00
 -1       167-2.07870E-02-1.38890E-02 0.00000E+00
 -1       168-2.20480E-02-1.17850E-02 0.00000E+00
 -1       169-2.30970E-02-9.56700E-03 0.00000E+00
 -1       170-2.39240E-02-7.25700E-03 0.00000E+00
 -1       171-2.45200E-02-4.87700E-03 0.00000E+00
 -1       172-2.48800E-02-2.45000E-03 0.00000E+00
 -1       173-5.25880E-02 3.96590E-02 0.00000E+00
 -1       174-5.50000E-02 3.86600E-02 0.00000E+00
 -1       175-5.70710E-02 3.70710E-02 0.00000E+00
 -1       176-5.86600E-02 3.50000E-02 0.00000E+00
 -1       177-5.96590E-02 3.25880E-02 0.00000E+00
 -1       178 3.75000E-02 4.00000E-02 0.00000E+00
 -1       179 3.50000E-02 4.00000E-02 0.00000E+00
 -1       180 3.25000E-02 4.00000E-02 0.00000E+00
 -1       181 3.00000E-02 4.00000E-02 0.00000E+00
 -1       182 2.75000E-02 4.00000E-02 0.00000E+00
 -1       183 2.50000E-02 4.00000E-02 0.00000E+00
 -1       184 2.25000E-02 4.00000E-02 0.00000E+00
 -1       185 2.00000E-02 4.00000E-02 0.00000E+00
 -1       186 1.75000E-02 4.00000E-02 0.00000E+00
 -1       187 1.50000E-02 4.00000E-02 0.00000E+00
 -1       188 1.25000E-02 4.00000E-02 0.00000E+00
 -1       189 1.00000E-02 4.00000E-02 0.00000E+00
 -1       190 7.50000E-03 4.00000E-02 0.00000E+00
 -1       191 5.00000E-03 4.00000E-02 0.00000E+00
 -1       192 2.50000E-03 4.00000E-02 0.00000E+00
 -1       193-0.00000E+00 4.00000E-02 0.00000E+00
 -1       194-2.50000E-03 4.00000E-02 0.00000E+00
 -1       195-5.00000E-03 4.00000E-02 0.00000E+00
 -1       196-7.50000E-03 4.00000E-02 0.00000E+00
 -1       197-1.00000E-02 4.00000E-02 0.00000E+00
 -1       198-1.25000E-02 4.00000E-02 0.00000E+00
 -1       199-1.50000E-02 4.00000E-02 0.00000E+00
 -1       200-1.75000E-02 4.00000E-02 0.00000E+00
 -1       201-2.00000E-02 4.00000E-02 0.00000E+00
 -1       202-2.25000E-02 4.00000E-02 0.00000E+00
 -1       203-2.50000E-02 4.00000E-02 0.00000E+00
 -1       204-2.75000E-02 4.00000E-02 0.00000E+00
 -1       205-3.00000E-02 4.00000E-02 0.00000E+00
 -1       206-3.25000E-02 4.00000E-02 0.00000E+00
 -1       207-3.50000E-02 4.00000E-02 0.00000E+00
 -1       208-3.75000E-02 4.00000E-02 0.00000E+00
 -1       209-4.00000E-02 4.00000E-02 0.00000E+00
 -1       210-4.25000E-02 4.00000E-02 0.00000E+00
 -1       211-4.50000E-02 4.00000E-02 0.00000E+00
 -1       212-4.75000E-02 4.00000E-02 0.00000E+00
 -1       213 5.98740E-02 2.22390E-02 0.00000E+00
 -1       214 5.94990E-02 2.44500E-02 0.00000E+00
 -1       215 5.88780E-02 2.66060E-02 0.00000E+00
 -1       216 5.80190E-02 2.86780E-02 0.00000E+00
 -1       217 5.69340E-02 3.06410E-02 0.00000E+00
 -1       218 5.56370E-02 3.24700E-02 0.00000E+00
 -1       219 5.41420E-02 3.41420E-02 0.00000E+00
 -1       220 5.24700E-02 3.56370E-02 0.00000E+00
 -1       221 5.06410E-02 3.69340E-02 0.00000E+00
 -1       222 4.86780E-02 3.80190E-02 0.00000E+00
 -1       223 4.66060E-02 3.88780E-02 0.00000E+00
 -1       224 4.44500E-02 3.94990E-02 0.00000E+00
 -1       225 4.22390E-02 3.98740E-02 0.00000E+00
 -1       226 6.00000E-02-1.75000E-02 0.00000E+00
 -1       227 6.00000E-02-1.50000E-02 0.00000E+00
 -1       228 6.00000E-02-1.25000E-02 0.00000E+00
 -1       229 6.00000E-02-1.00000E-02 0.00000E+00
 -1       230 6.00000E-02-7.50000E-03 0.00000E+00
 -1       231 6.00000E-02-5.00000E-03 0.00000E+00
 -1       232 6.00000E-02-2.50000E-03 0.00000E+00
 -1       233 6.00000E-02 0.00000E+00 0.00000E+00
 -1       234 6.00000E-02 2.50000E-03 0.00000E+00
 -1       235 6.00000E-02 5.00000E-03 0.00000E+00
 -1       236 6.00000E-02 7.50000E-03 0.00000E+00
 -1       237 6.00000E-02 1.00000E-02 0.00000E+00
 -1       238 6.00000E-02 1.25000E-02 0.00000E+00
 -1       239 6.00000E-02 1.50000E-02 0.00000E+00
 -1       240 6.00000E-02 1.75000E-02 0.00000E+00
 -1       241 4.22390E-02-3.98740E-02 0.00000E+00
 -1       242 4.44500E-02-3.94990E-02 0.00000E+00
 -1       243 4.66060E-02-3.88780E-02 0.00000E+00
 -1       244 4.86780E-02-3.80190E-02 0.00000E+00
 -1       245 5.06410E-02-3.69340E-02 0.00000E+00
 -1       246 5.24700E-02-3.56370E-02 0.00000E+00
 -1       247 5.41420E-02-3.41420E-02 0.00000E+00
 -1       248 5.56370E-02-3.24700E-02 0.00000E+00
 -1       249 5.69340E-02-3.06410E-02 0.00000E+00
 -1       250 5.80190E-02-2.86780E-02 0.00000E+00
 -1       251 5.88780E-02-2.66060E-02 0.00000E+00
 -1       252 5.94990E-02-2.44500E-02 0.00000E+00
 -1       253 5.98740E-02-2.22390E-02 0.00000E+00
 -1       254-5.96590E-02-3.25880E-02 0.00000E+00
 -1       255-5.86600E-02-3.50000E-02 0.00000E+00
 -1       256-5.70710E-02-3.70710E-02 0.00000E+00
 -1       257-5.50000E-02-3.86600E-02 0.00000E+00
 -1       258-5.25880E-02-3.96590E-02 0.00000E+00
 -1       259-6.00000E-02 2.75000E-02 0.00000E+00
 -1       260-6.00000E-02 2.50000E-02 0.00000E+00
 -1       261-6.00000E-02 2.25000E-02 0.00000E+00
 -1       262-6.00000E-02 2.00000E-02 0.00000E+00
 -1       263-6.00000E-02 1.75000E-02 0.00000E+00
 -1       264-6.00000E-02 1.50000E-02 0.00000E+00
 -1       265-6.00000E-02 1.25000E-02 0.00000E+00
 -1       266-6.00000E-02 1.00000E-02 0.00000E+00
 -1       267-6.00000E-02 7.50000E-03 0.00000E+00
 -1       268-6.00000E-02 5.00000E-03 0.00000E+00
 -1       269-6.00000E-02 2.50000E-03 0.00000E+00
 -1       270-6.00000E-02 0.00000E+00 0.00000E+00
 -1       271-6.00000E-02-2.50000E-03 0.00000E+00
 -1       272-6.00000E-02-5.00000E-03 0.00000E+00
 -1       273-6.00000E-02-7.50000E-03 0.00000E+00
 -1       274-6.00000E-02-1.00000E-02 0.00000E+00
 -1       275-6.00000E-02-1.25000E-02 0.00000E+00
 -1       276-6.00000E-02-1.50000E-02 0.00000E+00
 -1       277-6.00000E-02-1.75000E-02 0.00000E+00
 -1       278-6.00000E-02-2.00000E-02 0.00000E+00
 -1       279-6.00000E-02-2.25000E-02 0.00000E+00
 -1       280-6.00000E-02-2.50000E-02 0.00000E+00
 -1       281-6.00000E-02-2.75000E-02 0.00000E+00
 -1       282-5.96590E-02-3.25880E-02 1.20000E-02
 -1       283-5.86600E-02-3.50000E-02 1.20000E-02
 -1       284-5.70710E-02-3.70710E-02 1.20000E-02
 -1       285-5.50000E-02-3.86600E-02 1.20000E-02
 -1       286-5.25880E-02-3.96590E-02 1.20000E-02
 -1       287-6.00000E-02-3.00000E-02 1.00000E-02
 -1       288-6.00000E-02-3.00000E-02 8.00000E-03
 -1       289-6.00000E-02-3.00000E-02 6.00000E-03
 -1       290-6.00000E-02-3.00000E-02 4.00000E-03
 -1       291-6.00000E-02-3.00000E-02 2.00000E-03
 -1       292-2.48800E-02 2.45000E-03 1.20000E-02
 -1       293-2.45200E-02 4.87700E-03 1.20000E-02
 -1       294-2.39240E-02 7.25700E-03 1.20000E-02
 -1       295-2.30970E-02 9.56700E-03 1.20000E-02
 -1       296-2.20480E-02 1.17850E-02 1.20000E-02
 -1       297-2.07870E-02 1.38890E-02 1.20000E-02
 -1       298-1.93250E-02 1.58600E-02 1.20000E-02
 -1       299-1.76780E-02 1.76780E-02 1.20000E-02
 -1       300-1.58600E-02 1.93250E-02 1.20000E-02
 -1       301-1.38890E-02 2.07870E-02 1.20000E-02
 -1       302-1.17850E-02 2.20480E-02 1.20000E-02
 -1       303-9.56700E-03 2.30970E-02 1.20000E-02
 -1       304-7.25700E-03 2.39240E-02 1.20000E-02
 -1       305-4.87700E-03 2.45200E-02 1.20000E-02
 -1       306-2.45000E-03 2.48800E-02 1.20000E-02
 -1       307-0.00000E+00 2.50000E-02 1.20000E-02
 -1       308 2.45000E-03 2.48800E-02 1.20000E-02
 -1       309 4.87700E-03 2.45200E-02 1.20000E-02
 -1       310 7.25700E-03 2.39240E-02 1.20000E-02
 -1       311 9.56700E-03 2.30970E-02 1.20000E-02
 -1       312 1.17850E-02 2.20480E-02 1.20000E-02
 -1       313 1.38890E-02 2.07870E-02 1.20000E-02
 -1       314 1.58600E-02 1.93250E-02 1.20000E-02
 -1       315 1.76780E-02 1.76780E-02 1.20000E-02
 -1       316 1.93250E-02 1.58600E-02 1.20000E-02
 -1       317 2.07870E-02 1.38890E-02 1.20000E-02
 -1       318 2.20480E-02 1.17850E-02 1.20000E-02
 -1       319 2.30970E-02 9.56700E-03 1.20000E-02
 -1       320 2.39240E-02 7.25700E-03 1.20000E-02
 -1       321 2.45200E-02 4.87700E-03 1.20000E-02
 -1       322 2.48800E-02 2.45000E-03 1.20000E-02
 -1       323 2.48800E-02-2.45000E-03 1.20000E-02
 -1       324 2.45200E-02-4.87700E-03 1.20000E-02
 -1       325 2.39240E-02-7.25700E-03 1.20000E-02
 -1       326 2.30970E-02-9.56700E-03 1.20000E-02
 -1       327 2.20480E-02-1.17850E-02 1.20000E-02
 -1       328 2.07870E-02-1.38890E-02 1.20000E-02
 -1       329 1.93250E-02-1.58600E-02 1.20000E-02
 -1       330 1.76780E-02-1.76780E-02 1.20000E-02
 -1       331 1.58600E-02-1.93250E-02 1.20000E-02
 -1       332 1.38890E-02-2.07870E-02 1.20000E-02
 -1       333 1.17850E-02-2.20480E-02 1.20000E-02
 -1       334 9.56700E-03-2.30970E-02 1.20000E-02
 -1       335 7.25700E-03-2.39240E-02 1.20000E-02
 -1       336 4.87700E-03-2.45200E-02 1.20000E-02
 -1       337 2.45000E-03-2.48800E-02 1.20000E-02
 -1       338 0.00000E+00-2.50000E-02 1.20000E-02
 -1       339-2.45000E-03-2.48800E-02 1.20000E-02
 -1       340-4.87700E-03-2.45200E-02 1.20000E-02
 -1       341-7.25700E-03-2.39240E-02 1.20000E-02
 -1       342-9.56700E-03-2.30970E-02 1.20000E-02
 -1       343-1.17850E-02-2.20480E-02 1.20000E-02
 -1       344-1.38890E-02-2.07870E-02 1.20000E-02
 -1       345-1.58600E-02-1.93250E-02 1.20000E-02
 -1       346-1.76780E-02-1.76780E-02 1.20000E-02
 -1       347-1.93250E-02-1.58600E-02 1.20000E-02
 -1       348-2.07870E-02-1.38890E-02 1.20000E-02
 -1       349-2.20480E-02-1.17850E-02 1.20000E-02
 -1       350-2.30970E-02-9.56700E-03 1.20000E-02
 -1       351-2.39240E-02-7.25700E-03 1.20000E-02
 -1       352-2.45200E-02-4.87700E-03 1.20000E-02
 -1       353-2.48800E-02-2.45000E-03 1.20000E-02
 -1       354-5.25880E-02 3.96590E-02 1.20000E-02
 -1       355-5.50000E-02 3.86600E-02 1.20000E-02
 -1       356-5.70710E-02 3.70710E-02 1.20000E-02
 -1       357-5.86600E-02 3.50000E-02 1.20000E-02
 -1       358-5.96590E-02 3.25880E-02 1.20000E-02
 -1       359-6.00000E-02 2.75000E-02 1.20000E-02
 -1       360-6.00000E-02 2.50000E-02 1.20000E-02
 -1       361-6.00000E-02 2.25000E-02 1.20000E-02
 -1       362-6.00000E-02 2.00000E-02 1.20000E-02
 -1       363-6.00000E-02 1.75000E-02 1.20000E-02
 -1       364-6.00000E-02 1.50000E-02 1.20000E-02
 -1       365-6.00000E-02 1.25000E-02 1.20000E-02
 -1       366-6.00000E-02 1.00000E-02 1.20000E-02
 -1       367-6.00000E-02 7.50000E-03 1.20000E-02
 -1       368-6.00000E-02 5.00000E-03 1.20000E-02
 -1       369-6.00000E-02 2.50000E-03 1.20000E-02
 -1       370-6.00000E-02 0.00000E+00 1.20000E-02
 -1       371-6.00000E-02-2.50000E-03 1.20000E-02
 -1       372-6.00000E-02-5.00000E-03 1.20000E-02
 -1       373-6.00000E-02-7.50000E-03 1.20000E-02
 -1       374-6.00000E-02-1.00000E-02 1.20000E-02
 -1       375-6.00000E-02-1.25000E-02 1.20000E-02
 -1       376-6.00000E-02-1.50000E-02 1.20000E-02
 -1       377-6.00000E-02-1.75000E-02 1.20000E-02
 -1       378-6.00000E-02-2.00000E-02 1.20000E-02
 -1       379-6.00000E-02-2.25000E-02 1.20000E-02
 -1       380-6.00000E-02-2.50000E-02 1.20000E-02
 -1       381-6.00000E-02-2.75000E-02 1.20000E-02
 -1       382 4.22390E-02-3.98740E-02 1.20000E-02
 -1       383 4.44500E-02-3.94990E-02 1.20000E-02
 -1       384 4.66060E-02-3.88780E-02 1.20000E-02
 -1       385 4.86780E-02-3.80190E-02 1.20000E-02
 -1       386 5.06410E-02-3.69340E-02 1.20000E-02
 -1       387 5.24700E-02-3.56370E-02 1.20000E-02
 -1       388 5.41420E-02-3.41420E-02 1.20000E-02
 -1       389 5.56370E-02-3.24700E-02 1.20000E-02
 -1       390 5.69340E-02-3.06410E-02 1.20000E-02
 -1       391 5.80190E-02-2.86780E-02 1.20000E-02
 -1       392 5.88780E-02-2.66060E-02 1.20000E-02
 -1       393 5.94990E-02-2.44500E-02 1.20000E-02
 -1       394 5.98740E-02-2.22390E-02 1.20000E-02
 -1       395 6.00000E-02-1.75000E-02 1.20000E-02
 -1       396 6.00000E-02-1.50000E-02 1.20000E-02
 -1       397 6.00000E-02-1.25000E-02 1.20000E-02
 -1       398 6.00000E-02-1.00000E-02 1.20000E-02
 -1       399 6.00000E-02-7.50000E-03 1.20000E-02
 -1       400 6.00000E-02-5.00000E-03 1.20000E-02
 -1       401 6.00000E-02-2.50000E-03 1.20000E-02
 -1       402 6.00000E-02 0.00000E+00 1.20000E-02
 -1       403 6.00000E-02 2.50000E-03 1.20000E-02
 -1       404 6.00000E-02 5.00000E-03 1.20000E-02
 -1       405 6.00000E-02 7.50000E-03 1.20000E-02
 -1       406 6.00000E-02 1.00000E-02 1.20000E-02
 -1       407 6.00000E-02 1.25000E-02 1.20000E-02
 -1       408 6.00000E-02 1.50000E-02 1.20000E-02
 -1       409 6.00000E-02 1.75000E-02 1.20000E-02
 -1       410 5.98740E-02 2.22390E-02 1.20000E-02
 -1       411 5.94990E-02 2.44500E-02 1.20000E-02
 -1       412 5.88780E-02 2.66060E-02 1.20000E-02
 -1       413 5.80190E-02 2.86780E-02 1.20000E-02
 -1       414 5.69340E-02 3.06410E-02 1.20000E-02
 -1       415 5.56370E-02 3.24700E-02 1.20000E-02
 -1       416 5.41420E-02 3.41420E-02 1.20000E-02
 -1       417 5.24700E-02 3.56370E-02 1.20000E-02
 -1       418 5.06410E-02 3.69340E-02 1.20000E-02
 -1       419 4.86780E-02 3.80190E-02 1.20000E-02
 -1       420 4.66060E-02 3.88780E-02 1.20000E-02
 -1       421 4.44500E-02 3.94990E-02 1.20000E-02
 -1       422 4.22390E-02 3.98740E-02 1.20000E-02
 -1       423 3.75000E-02 4.00000E-02 1.20000E-02
 -1       424 3.50000E-02 4.00000E-02 1.20000E-02
 -1       425 3.25000E-02 4.00000E-02 1.20000E-02
 -1       426 3.00000E-02 4.00000E-02 1.20000E-02
 -1       427 2.75000E-02 4.00000E-02 1.20000E-02
 -1       428 2.50000E-02 4.00000E-02 1.20000E-02
 -1       429 2.25000E-02 4.00000E-02 1.20000E-02
 -1       430 2.00000E-02 4.00000E-02 1.20000E-02
 -1       431 1.75000E-02 4.00000E-02 1.20000E-02
 -1       432 1.50000E-02 4.00000E-02 1.20000E-02
 -1       433 1.25000E-02 4.00000E-02 1.20000E-02
 -1       434 1.00000E-02 4.00000E-02 1.20000E-02
 -1       435 7.50000E-03 4.00000E-02 1.20000E-02
 -1       436 5.00000E-03 4.00000E-02 1.20000E-02
 -1       437 2.50000E-03 4.00000E-02 1.20000E-02
 -1       438-0.00000E+00 4.00000E-02 1.20000E-02
 -1       439-2.50000E-03 4.00000E-02 1.20000E-02
 -1       440-5.00000E-03 4.00000E-02 1.20000E-02
 -1       441-7.50000E-03 4.00000E-02 1.20000E-02
 -1       442-1.00000E-02 4.00000E-02 1.20000E-02
 -1       443-1.25000E-02 4.00000E-02 1.20000E-02
 -1       444-1.50000E-02 4.00000E-02 1.20000E-02
 -1       445-1.75000E-02 4.00000E-02 1.20000E-02
 -1       446-2.00000E-02 4.00000E-02 1.20000E-02
 -1       447-2.25000E-02 4.00000E-02 1.20000E-02
 -1       448-2.50000E-02 4.00000E-02 1.20000E-02
 -1       449-2.75000E-02 4.00000E-02 1.20000E-02
 -1       450-3.00000E-02 4.00000E-02 1.20000E-02
 -1       451-3.25000E-02 4.00000E-02 1.20000E-02
 -1       452-3.50000E-02 4.00000E-02 1.20000E-02
 -1       453-3.75000E-02 4.00000E-02 1.20000E-02
 -1       454-4.00000E-02 4.00000E-02 1.20000E-02
 -1       455-4.25000E-02 4.00000E-02 1.20000E-02
 -1       456-4.50000E-02 4.00000E-02 1.20000E-02
 -1       457-4.75000E-02 4.00000E-02 1.20000E-02
 -1       458 6.00000E-02-2.00000E-02 1.00000E-02
 -1       459 6.00000E-02-2.00000E-02 8.00000E-03
 -1       460 6.00000E-02-2.00000E-02 6.00000E-03
 -1       461 6.00000E-02-2.00000E-02 4.00000E-03
 -1       462 6.00000E-02-2.00000E-02 2.00000E-03
 -1       463-6.00000E-02 3.00000E-02 1.00000E-02
 -1       464-6.00000E-02 3.00000E-02 8.00000E-03
 -1       465-6.00000E-02 3.00000E-02 6.00000E-03
 -1       466-6.00000E-02 3.00000E-02 4.00000E-03
 -1       467-6.00000E-02 3.00000E-02 2.00000E-03
 -1       468-5.00000E-02 4.00000E-02 1.00000E-02
 -1       469-5.00000E-02 4.00000E-02 8.00000E-03
 -1       470-5.00000E-02 4.00000E-02 6.00000E-03
 -1       471-5.00000E-02 4.00000E-02 4.00000E-03
 -1       472-5.00000E-02 4.00000E-02 2.00000E-03
 -1       473 4.00000E-02 4.00000E-02 1.00000E-02
 -1       474 4.00000E-02 4.00000E-02 8.00000E-03
 -1       475 4.00000E-02 4.00000E-02 6.00000E-03
 -1       476 4.00000E-02 4.00000E-02 4.00000E-03
 -1       477 4.00000E-02 4.00000E-02 2.00000E-03
 -1       478 6.00000E-02 2.00000E-02 1.00000E-02
 -1       479 6.00000E-02 2.00000E-02 8.00000E-03
 -1       480 6.00000E-02 2.00000E-02 6.00000E-03
 -1       481 6.00000E-02 2.00000E-02 4.00000E-03
 -1       482 6.00000E-02 2.00000E-02 2.00000E-03
 -1       483-2.50000E-02 0.00000E+00 1.00000E-02
 -1       484-2.50000E-02 0.00000E+00 8.00000E-03
 -1       485-2.50000E-02 0.00000E+00 6.00000E-03
 -1       486-2.50000E-02 0.00000E+00 4.00000E-03
 -1       487-2.50000E-02 0.00000E+00 2.00000E-03
 -1       488 2.50000E-02 0.00000E+00 1.00000E-02
 -1       489 2.50000E-02 0.00000E+00 8.00000E-03
 -1       490 2.50000E-02 0.00000E+00 6.00000E-03
 -1       491 2.50000E-02 0.00000E+00 4.00000E-03
 -1       492 2.50000E-02 0.00000E+00 2.00000E-03
 -1       493 2.12520E-02-4.00000E-02 9.62800E-03
 -1       494 1.88350E-02-4.00000E-02 9.66500E-03
 -1       495-1.11530E-02-4.00000E-02 9.58900E-03
 -1       496-9.59200E-03-4.00000E-02 7.28500E-03
 -1       497-1.21800E-02-4.00000E-02 7.12500E-03
 -1       498-1.86670E-02-4.00000E-02 2.39200E-03
 -1       499-1.62380E-02-4.00000E-02 2.20200E-03
 -1       500-2.45500E-03-4.00000E-02 5.10000E-03
 -1       501-3.69300E-03-4.00000E-02 2.41000E-03
 -1       502-4.98900E-03-4.00000E-02 4.48500E-03
 -1       503-1.27100E-03-4.00000E-02 9.71900E-03
 -1       504-3.12160E-02-4.00000E-02 9.62500E-03
 -1       505-3.37920E-02-4.00000E-02 9.59900E-03
 -1       506 2.61380E-02-4.00000E-02 2.24600E-03
 -1       507 2.36240E-02-4.00000E-02 2.32300E-03
 -1       508-2.24770E-02-4.00000E-02 5.11400E-03
 -1       509-2.36730E-02-4.00000E-02 2.40700E-03
 -1       510-2.49810E-02-4.00000E-02 4.46400E-03
 -1       511-3.62680E-02-4.00000E-02 9.49000E-03
 -1       512 2.38360E-02-4.00000E-02 9.59400E-03
 -1       513 1.21600E-03-4.00000E-02 9.51300E-03
 -1       514 3.68700E-03-4.00000E-02 9.59900E-03
 -1       515 1.61980E-02-4.00000E-02 2.48800E-03
 -1       516 1.37090E-02-4.00000E-02 2.28500E-03
 -1       517 1.46940E-02-4.00000E-02 4.78000E-03
 -1       518-3.60860E-02-4.00000E-02 2.23800E-03
 -1       519-3.35960E-02-4.00000E-02 2.31600E-03
 -1       520 3.59470E-02-4.00000E-02 1.02580E-02
 -1       521 3.78210E-02-4.00000E-02 9.31700E-03
 -1       522 3.54840E-02-4.00000E-02 8.12900E-03
 -1       523 2.00180E-02-4.00000E-02 6.98100E-03
 -1       524 1.74520E-02-4.00000E-02 5.09900E-03
 -1       525 1.76130E-02-4.00000E-02 7.65100E-03
 -1       526-3.79600E-03-4.00000E-02 9.67800E-03
 -1       527-6.16300E-03-4.00000E-02 9.68600E-03
 -1       528-6.30600E-03-4.00000E-02 2.41500E-03
 -1       529-8.80400E-03-4.00000E-02 2.51700E-03
 -1       530-7.51700E-03-4.00000E-02 5.11600E-03
 -1       531 3.10840E-02-4.00000E-02 2.43600E-03
 -1       532 2.85860E-02-4.00000E-02 2.38100E-03
 -1       533 2.96030E-02-4.00000E-02 4.80800E-03
 -1       534 2.88770E-02-4.00000E-02 9.57400E-03
 -1       535-2.11880E-02-4.00000E-02 2.51600E-03
 -1       536-2.50410E-02-4.00000E-02 6.98700E-03
 -1       537-2.26680E-02-4.00000E-02 7.67500E-03
 -1       538-2.62570E-02-4.00000E-02 2.37900E-03
 -1       539-2.86840E-02-4.00000E-02 2.36700E-03
 -1       540-2.74820E-02-4.00000E-02 5.03700E-03
 -1       541 3.78880E-02-4.00000E-02 7.14000E-03
 -1       542 6.27600E-03-4.00000E-02 9.61900E-03
 -1       543 4.98900E-03-4.00000E-02 7.54000E-03
 -1       544-1.13310E-02-4.00000E-02 2.39300E-03
 -1       545-1.37610E-02-4.00000E-02 2.20200E-03
 -1       546-4.35520E-02-4.00000E-02 2.58800E-03
 -1       547 3.83000E-03-4.00000E-02 2.33400E-03
 -1       548 1.13160E-02-4.00000E-02 9.60000E-03
 -1       549-4.78900E-02-4.00000E-02 2.68400E-03
 -1       550 3.28430E-02-4.00000E-02 7.66300E-03
 -1       551 3.37480E-02-4.00000E-02 9.91600E-03
 -1       552 2.63310E-02-4.00000E-02 9.47600E-03
 -1       553 2.50230E-02-4.00000E-02 6.88500E-03
 -1       554 2.70520E-02-4.00000E-02 4.70100E-03
 -1       555 2.48080E-02-4.00000E-02 4.32300E-03
 -1       556 8.72600E-03-4.00000E-02 9.61900E-03
 -1       557-7.34100E-03-4.00000E-02 7.67900E-03
 -1       558-2.13310E-02-4.00000E-02 9.74700E-03
 -1       559-2.38550E-02-4.00000E-02 9.67800E-03
 -1       560 1.62870E-02-4.00000E-02 9.71600E-03
 -1       561 2.25210E-02-4.00000E-02 7.54100E-03
 -1       562-2.62460E-02-4.00000E-02 9.64200E-03
 -1       563 7.50200E-03-4.00000E-02 6.96200E-03
 -1       564-1.62810E-02-4.00000E-02 9.45100E-03
 -1       565-1.37200E-02-4.00000E-02 9.45100E-03
 -1       566-1.50000E-02-4.00000E-02 6.81400E-03
 -1       567 2.78330E-02-4.00000E-02 7.12400E-03
 -1       568 6.23000E-03-4.00000E-02 2.36100E-03
 -1       569 7.50100E-03-4.00000E-02 4.43000E-03
 -1       570 5.02800E-03-4.00000E-02 5.01900E-03
 -1       571 3.35340E-02-4.00000E-02 2.29300E-03
 -1       572-2.85000E-04-4.00000E-02 7.22100E-03
 -1       573-2.58900E-03-4.00000E-02 7.65700E-03
 -1       574-4.76060E-02-4.00000E-02 7.41300E-03
 -1       575-3.49360E-02-4.00000E-02 6.89200E-03
 -1       576-1.96870E-02-4.00000E-02 4.85500E-03
 -1       577-4.59200E-02-4.00000E-02 1.79400E-03
 -1       578 2.12280E-02-4.00000E-02 2.36900E-03
 -1       579-1.03100E-02-4.00000E-02 4.85400E-03
 -1       580 3.61700E-02-4.00000E-02 6.05500E-03
 -1       581 3.42900E-02-4.00000E-02 6.11700E-03
 -1       582 3.13350E-02-4.00000E-02 9.72600E-03
 -1       583-4.12690E-02-4.00000E-02 9.68700E-03
 -1       584-3.24650E-02-4.00000E-02 7.54100E-03
 -1       585-3.23970E-02-4.00000E-02 5.01400E-03
 -1       586-1.88500E-02-4.00000E-02 9.58900E-03
 -1       587-1.78210E-02-4.00000E-02 7.12500E-03
 -1       588 3.23290E-02-4.00000E-02 4.87400E-03
 -1       589-3.93510E-02-4.00000E-02 4.80800E-03